Automatically generated mesh
     8
Reciprocal lattice
     -0.00827137524455  0.4606728142115  -0.27633267329083            1
     0.24119726714154  -0.18969279771736  -0.49326829670676            1
     0.28693838123511  -0.28451732582612  -0.27924021554683            1
     0.09179826482869  -0.10408668393499  0.24661705167646            1
     -0.28474174222161  0.48024699304864  -0.08313508124853            1
     -0.31431692456229  0.11643345216101  0.49202636304361            1
     0.25395621614879  0.00699605213311  -0.29305031440531            1
     -0.35300462668283  0.33054698170391  -0.0418532159412            1
     0.03387691602855  -0.17854159118373  -0.29670227589564            1
     -0.31231563980881  0.03189844940097  -0.27930204534173            1
     0.34746502148665  0.13065529388627  -0.44946263797452            1
     -0.45765332943254  -0.00664802368216  0.41350346988973            1
     0.03003139247738  0.50162075912483  -0.06016159763811            1
     0.4231356450902  0.28366253422277  0.21690193083812            1
     0.24704737247695  0.0394976433801  0.14601368357791            1
     -0.43863214466046  -0.01356244655883  -0.33257811999223            1
     -0.01980869870935  0.43212404397607  0.09576676742571            1
     -0.45793964846211  0.41820583779156  -0.34942560100501            1
     -0.19095583152354  0.50419520882224  -0.46536330725899            1
     0.15852732949159  -0.39156492952968  -0.22811013543221            1
     0.0432481894986  0.16259740669939  0.42346752243078            1
     -0.01368609319088  -0.25288306269248  0.37042907365991            1
     0.26836991505911  0.27387695323842  0.02951585703299            1
     0.20828757972953  -0.3603917124697  -0.11684800519276            1
     -0.3993491454551  -0.01857899070759  0.24207078270293            1
     0.07858928167943  0.41810399358426  0.06506219605192            1
     0.4451212299972  0.43262897861975  0.05793549658239            1
     0.35638271091921  0.193429201507  0.27953584895301            1
     -0.07748325216479  -0.35094949334896  -0.18305908916547            1
     -0.41379679225103  0.11588781910595  0.07758165232069            1
     0.45054904744927  0.37429952603405  -0.0224255222028            1
     0.46640420902689  0.13993749974796  0.04203001640571            1
     -0.49257750376041  -0.01614729938526  -0.48463173354165            1
     0.04108080105856  -0.05871090414389  0.33518354150555            1
     0.48562769860412  -0.46237863621737  -0.29739491776355            1
     -0.1453326313446  0.29452092108929  0.44270839435603            1
     0.13882478705726  -0.11969642576482  0.27176545852164            1
     0.22732818666111  0.44592921738431  -0.29507641806796            1
     -0.31725374251936  -0.45634869945963  -0.37497399421531            1
     0.05803752916641  0.434818621358  0.50229310618106            1
     0.49426589173698  0.21013318718106  -0.39645680214998            1
     -0.2839145914326  -0.23119723051336  -0.29244248049092            1
     0.45338491699996  0.38216249384519  0.47751735654541            1
     -0.48758461258906  -0.13286934697997  0.46208430058431            1
     -0.37115734907335  0.19488695446384  0.40368653825215            1
     -0.35648001579024  0.39922041246951  0.21559570093161            1
     -0.32405154251344  0.1162191040081  0.11703947380735            1
     -0.15034793938583  0.41700638714841  0.36869070323603            1
     0.27209128895239  -0.23721784019317  0.2120788747891            1
     0.50323108818128  0.46822558404655  0.50908340114975            1
     -0.05245750429301  0.02791078252237  -0.07124550826077            1
     -0.17173177031691  0.48146832864522  -0.02357634509493            1
     -0.39237275555741  -0.24997256564647  -0.28026839601865            1
     0.47047925675384  0.15523384973978  0.32845747123156            1
     0.33136658552632  0.36107184461874  -0.49833472497587            1
     -0.47889763812427  -0.45927798044921  -0.27420326201846            1
     0.37275374844408  0.40805578092994  0.29229577242309            1
     -0.12287601297274  -0.1671775295187  0.19989942130432            1
     0.39997136938718  -0.41463730046867  -0.03751466048474            1
     -0.19569936001993  -0.17753839701786  -0.36006236805831            1
     0.31892603890239  -0.23891575711586  -0.02477403931098            1
     -0.45496021630693  -0.07891549682449  -0.34719254090659            1
     0.33437107737893  -0.2924572588357  -0.30465456079            1
     0.42908050573901  0.45699023074363  0.33086120553916            1
     -0.285767658692  0.16234123105886  0.38927054082493            1
     -0.13326388654879  0.46951602461442  -0.42572312143482            1
     -0.30556592376188  -0.13817695190321  0.11468339410316            1
     -0.13010585638146  0.10533972600875  0.43563654351072            1
     0.18859116061715  0.39860336645853  0.15796685764837            1
     0.11153071969684  -0.00115569769455  0.46979947050986            1
     0.25681300285017  0.07722577752253  -0.11563130090261            1
     -0.17817856178467  0.32939921619897  -0.33800602337402            1
     -0.02368112087067  0.41746695664054  0.49914655707396            1
     0.15239224374053  0.24084690906427  0.05986152344086            1
     0.34051487192227  -0.0064022434656  0.42537216425533            1
     -0.22671769964967  0.00237811113077  0.03495648711624            1
     0.33169459036311  -0.3475352701105  -0.13503707271447            1
     -0.16526292071832  0.17731244726471  0.27760111141461            1
     0.50018048077088  0.0546971246338  -0.31624114030515            1
     0.03795048228959  -0.42237183803066  -0.37226083677414            1
     0.49540081359808  -0.42786338657409  -0.34231578354142            1
     -0.35595424145284  0.13462034595585  0.42399349362888            1
     0.16423014594917  0.17071139000428  0.12406785875776            1
     0.45988282014393  -0.18051259681176  -0.34584690768932            1
     0.42422347846174  0.04925947390531  -0.26527277166225            1
     0.22840740613464  0.46746223939615  -0.4497066815437            1
     -0.07273614357431  0.47372125747871  -0.42216061504553            1
     0.22214609718449  0.34647483824728  0.46784868956818            1
     0.2791852329077  -0.26622368903822  0.22104164575408            1
     -0.28666567102848  -0.3844668993977  0.22713612315295            1
     0.30784093822186  0.34122012060279  0.01801475281384            1
     0.11065300701644  0.36650795416397  0.28974810984834            1
     0.26164723847571  -0.4443281621279  -0.24212377874025            1
     -0.03047794443922  0.05395201905758  -0.34056343459881            1
     -0.33099595846856  0.18808626241448  0.30214514485095            1
     -0.17016842215847  0.43547939314245  0.28820997865577            1
     0.19389845834875  -0.1218609365745  -0.00024986968507            1
     0.50691228174508  -0.11561294237817  0.11727636020064            1
     0.24270336089881  -0.03278836020665  0.24559441823961            1
     0.50183780348272  0.18105345493573  0.28765525329212            1 
