Automatically generated mesh
     8
Reciprocal lattice
     0.33169459036311 -0.3475352701105 -0.13503707271447           1 
